                               Psi4 1.2a1.dev936

  ==> Input File <==

--------------------------------------------------------------------------
# PYTHONPATH must include directory above plugin directory.
#     Define either externally or here, then import plugin.
sys.path.insert(0, "/edfs/users/namvu/v2rdm_casscf_public")
import v2rdm_casscf
sys.path.insert(0, './..')
import erpa

memory 3000 mb
molecule mol {
0 1
H
H 1  R
unit Bohr

}
Rvals=[1.0, 1.5, 2.0, 2.5, 3.0, 3.5, 4.0, 4.5, 5.0, 5.5, 6.0, 6.5, 7.0, 7.5, 8.0, 8.5, 9.0]

set {
  basis cc-pvtz
  scf_type df
  d_convergence 1e-8
  reference rohf
}

set v2rdm_casscf{

  positivity dqg

  tpdm_write_full true
  constrain_spin true

  r_convergence  1e-5
  e_convergence  1e-4
  cg_convergence 1e-6
  maxiter 1000000

  optimize_orbitals true
  orbopt_active_active_rotations false
  semicanonicalize_orbitals false

  mu_update_frequency 500

  restricted_docc  [ 1,0,0,0,0,0,0,0 ]
  active           [ 0,0,0,0,0,0,0,0 ]
  nat_orbs true
}

set erpa {

  pruning_threshold 1e-6
  number_coefficients 20
  coefficient_threshold 0.005
  spin_adapt_erpa true

 }
for R in Rvals:
  mol.R = R
  en,wfn = energy('v2rdm-casscf',return_wfn=True)
  energy('erpa',ref_wfn=wfn)

--------------------------------------------------------------------------

    Molecular point group: d2h
  Charge       = 0
  Multiplicity = 1
  Basis Set: CC-PVTZ
    Blend: CC-PVTZ
  Basis Set: (CC-PVTZ AUX)
    Blend: CC-PVTZ-JKFIT
  @DF-ROHF Final Energy:    -1.08374520171504
    Total Energy =                         -1.0837452017150397
    Molecular point group: d2h
  Basis Set: CC-PVTZ
    Blend: CC-PVTZ
  Basis Set: (CC-PVTZ AUX)
    Blend: CC-PVTZ-JKFIT
  @DF-ROHF Final Energy:    -1.13075412350309
    Total Energy =                         -1.1307541235030880
  Basis Set: CC-PVTZ
    Blend: CC-PVTZ
  Basis Set: (CC-PVTZ AUX)
    Blend: CC-PVTZ-JKFIT
  @DF-ROHF Final Energy:    -1.09108440276909
    Total Energy =                         -1.0910844027690896
  Basis Set: CC-PVTZ
    Blend: CC-PVTZ
  Basis Set: (CC-PVTZ AUX)
    Blend: CC-PVTZ-JKFIT
  @DF-ROHF Final Energy:    -1.03820566149610
    Total Energy =                         -1.0382056614961013
  @DF-ROHF Final Energy:    -0.98859588264864
    Total Energy =                         -0.9885958826486438
  @DF-ROHF Final Energy:    -0.94590744204916
    Total Energy =                         -0.9459074420491620
  @DF-ROHF Final Energy:    -0.91030787183255
    Total Energy =                         -0.9103078718325537
  @DF-ROHF Final Energy:    -0.88102433624395
    Total Energy =                         -0.8810243362439473
  @DF-ROHF Final Energy:    -0.85709272810016
    Total Energy =                         -0.8570927281001568
  @DF-ROHF Final Energy:    -0.83757943207676
    Total Energy =                         -0.8375794320767576
  @DF-ROHF Final Energy:    -0.82166730586215
    Total Energy =                         -0.8216673058621486
  @DF-ROHF Final Energy:    -0.80867723863496
    Total Energy =                         -0.8086772386349601
  @DF-ROHF Final Energy:    -0.79805683223178
    Total Energy =                         -0.7980568322317840
  Basis Set: CC-PVTZ
    Blend: CC-PVTZ
  Basis Set: (CC-PVTZ AUX)
    Blend: CC-PVTZ-JKFIT
  @DF-ROHF Final Energy:    -0.78935905936774
    Total Energy =                         -0.7893590593677388
  Basis Set: CC-PVTZ
    Blend: CC-PVTZ
  Basis Set: (CC-PVTZ AUX)
    Blend: CC-PVTZ-JKFIT
  @DF-ROHF Final Energy:    -0.78221907531105
    Total Energy =                         -0.7822190753110541
  Basis Set: CC-PVTZ
    Blend: CC-PVTZ
  Basis Set: (CC-PVTZ AUX)
    Blend: CC-PVTZ-JKFIT
  @DF-ROHF Final Energy:    -0.77633551283409
    Total Energy =                         -0.7763355128340905
  Basis Set: CC-PVTZ
    Blend: CC-PVTZ
  Basis Set: (CC-PVTZ AUX)
    Blend: CC-PVTZ-JKFIT

    Orbital Energies (a.u.)
    -----------------------

    Doubly Occupied:

       1Ag    -0.282627

    Singly Occupied:

  @DF-ROHF Final Energy:    -0.77145867648851

   => Energetics <=

    Nuclear Repulsion Energy =              0.1111111111111111
    One-Electron Energy =                  -1.1998851590585611
    Two-Electron Energy =                   0.3173153714589401
    Total Energy =                         -0.7714586764885099
    Molecular point group: d2h
    Molecular point group: d2h
    Molecular point group: d2h
    Molecular point group: d2h

    Geometry (in Bohr), charge = 0, multiplicity = 1:

       Center              X                  Y                   Z               Mass
    ------------   -----------------  -----------------  -----------------  -----------------
           H          0.000000000000     0.000000000000    -4.500000000000     1.007825032070
           H          0.000000000000     0.000000000000     4.500000000000     1.007825032070

*** Psi4 exiting successfully. Buy a developer a beer!
