                               Psi4 1.2a1.dev936

  ==> Input File <==

--------------------------------------------------------------------------
# PYTHONPATH must include directory above plugin directory.
#     Define either externally or here, then import plugin.
sys.path.insert(0, "/edfs/users/namvu/v2rdm_casscf_public")
import v2rdm_casscf
sys.path.insert(0, './..')
import tderpa

memory 3000 mb
molecule mol {
0 1
H
H 1  R
unit bohr

}
Rvals=[1.0, 1.5, 2.0, 2.5, 3.0, 3.5, 4.0, 4.5, 5.0, 5.5, 6.0, 6.5, 7.0, 7.5, 8.0, 8.5, 9.0]

set {
  basis cc-pvtz
  scf_type df
  d_convergence 1e-8
  reference rohf
  maxiter 200
}

for R in Rvals:
  mol.R = R
  en,wfn = energy('fci',return_wfn=True)

--------------------------------------------------------------------------

    Molecular point group: d2h
  Charge       = 0
  Multiplicity = 1
  Basis Set: CC-PVTZ
    Blend: CC-PVTZ
  Basis Set: (CC-PVTZ AUX)
    Blend: CC-PVTZ-JKFIT
  @DF-ROHF Final Energy:    -1.08374520171504
    Total Energy =                         -1.0837452017150397
    Molecular point group: d2h
  Basis Set: CC-PVTZ
    Blend: CC-PVTZ
  Basis Set: (CC-PVTZ AUX)
    Blend: CC-PVTZ-JKFIT
  @DF-ROHF Final Energy:    -1.13075412350309
    Total Energy =                         -1.1307541235030880
  Basis Set: CC-PVTZ
    Blend: CC-PVTZ
  Basis Set: (CC-PVTZ AUX)
    Blend: CC-PVTZ-JKFIT
  @DF-ROHF Final Energy:    -1.09108440276909
    Total Energy =                         -1.0910844027690896
  Basis Set: CC-PVTZ
    Blend: CC-PVTZ
  Basis Set: (CC-PVTZ AUX)
    Blend: CC-PVTZ-JKFIT
  @DF-ROHF Final Energy:    -1.03820566149610
    Total Energy =                         -1.0382056614961013
  @DF-ROHF Final Energy:    -0.98859588264864
    Total Energy =                         -0.9885958826486438
  @DF-ROHF Final Energy:    -0.94590744204916
    Total Energy =                         -0.9459074420491620
  @DF-ROHF Final Energy:    -0.91030787183255
    Total Energy =                         -0.9103078718325537
  @DF-ROHF Final Energy:    -0.88102433624395
    Total Energy =                         -0.8810243362439473
  @DF-ROHF Final Energy:    -0.85709272810016
    Total Energy =                         -0.8570927281001568
  @DF-ROHF Final Energy:    -0.83757943207676
    Total Energy =                         -0.8375794320767576
  @DF-ROHF Final Energy:    -0.82166730586215
    Total Energy =                         -0.8216673058621486
  @DF-ROHF Final Energy:    -0.80867723863496
    Total Energy =                         -0.8086772386349601
  @DF-ROHF Final Energy:    -0.79805683223178
    Total Energy =                         -0.7980568322317840
  Basis Set: CC-PVTZ
    Blend: CC-PVTZ
  Basis Set: (CC-PVTZ AUX)
    Blend: CC-PVTZ-JKFIT
  @DF-ROHF Final Energy:    -0.78935905936774
    Total Energy =                         -0.7893590593677388
  Basis Set: CC-PVTZ
    Blend: CC-PVTZ
  Basis Set: (CC-PVTZ AUX)
    Blend: CC-PVTZ-JKFIT
  @DF-ROHF Final Energy:    -0.78221907531105
    Total Energy =                         -0.7822190753110541
  Multiplicity = 1
  Basis Set: CC-PVTZ
    Blend: CC-PVTZ
  Basis Set: (CC-PVTZ AUX)
    Blend: CC-PVTZ-JKFIT
  @DF-ROHF Final Energy:    -0.77633551283409
    Total Energy =                         -0.7763355128340905
    Molecular point group: d2h

    Geometry (in Bohr), charge = 0, multiplicity = 1:

       Center              X                  Y                   Z               Mass
    ------------   -----------------  -----------------  -----------------  -----------------
           H          0.000000000000     0.000000000000    -4.500000000000     1.007825032070
           H          0.000000000000     0.000000000000     4.500000000000     1.007825032070

  Charge       = 0
  Multiplicity = 1
  Basis Set: CC-PVTZ
    Blend: CC-PVTZ
  Basis Set: (CC-PVTZ AUX)
    Blend: CC-PVTZ-JKFIT

    Orbital Energies (a.u.)
    -----------------------

    Doubly Occupied:

       1Ag    -0.282627

    Singly Occupied:

  @DF-ROHF Final Energy:    -0.77145867648851
    Total Energy =                         -0.7714586764885099

   ==> Energetics <==

    SCF energy =           -0.771458676488510
    Total CI energy =      -0.999628592717745

   ==> FCI root 0 information <==

    FCI Root 0 energy =    -0.999628592717745

   The 20 most important determinants:

    *   1    0.694089  (    0,    0)  1AgX
    *   2   -0.689077  (   15,   15)  1B1uX
    *   3    0.106268  (    0,    1)  1AgA 2AgB
    *   4    0.106268  (    1,    0)  1AgB 2AgA
    *   5   -0.099257  (   15,   16)  1B1uA 2B1uB
    *   6   -0.099257  (   16,   15)  1B1uB 2B1uA
    *   7    0.016258  (    1,    1)  2AgX
    *   8   -0.014307  (   16,   16)  2B1uX
    *   9    0.012333  (    0,    3)  1AgA 4AgB
    *  10    0.012333  (    3,    0)  1AgB 4AgA
    *  11   -0.011919  (   15,   18)  1B1uA 4B1uB
    *  12   -0.011919  (   18,   15)  1B1uB 4B1uA
    *  13   -0.003761  (    0,    2)  1AgA 3AgB
    *  14   -0.003761  (    2,    0)  1AgB 3AgA
    *  15    0.003286  (   15,   17)  1B1uA 3B1uB
    *  16    0.003286  (   17,   15)  1B1uB 3B1uA
    *  17    0.001881  (    1,    3)  2AgA 4AgB
    *  18    0.001881  (    3,    1)  2AgB 4AgA
    *  19   -0.001729  (   16,   18)  2B1uA 4B1uB
    *  20   -0.001729  (   18,   16)  2B1uB 4B1uA

*** Psi4 exiting successfully. Buy a developer a beer!
