                               Psi4 1.2rc3.dev4

  ==> Input File <==

--------------------------------------------------------------------------
# PYTHONPATH must include directory above plugin directory.
#     Define either externally or here, then import plugin.
sys.path.insert(0, '/edfs/users/namvu/chem')
import v2rdm_casscf
sys.path.insert(0, '/edfs/users/namvu/software')
import v2rdm_doci
sys.path.insert(0, '/edfs/users/namvu/chem/deprince-group/plugins')
import erpa

memory 8000 mb

molecule h4 {
 h
 h 1 R
 h 2 R 1 180.0
 h 3 R 2 180.0 1 180.0
# h 4 R 3 180.0 2 180.0
# h 5 R 4 180.0 3 180.0
# h 6 R 5 180.0 4 180.0
# h 7 R 6 180.0 5 180.0
symmetry c1
}

Rvals=[1.8]

set {
  guess sad
  basis sto-3g
  scf_type df
  d_convergence 1e-8
  reference rhf
  maxiter 500
}
set v2rdm_doci {
  positivity dqgt2
  tpdm_write_full true
  r_convergence  1e-6
  e_convergence  1e-5
  maxiter 1000000
  orbopt_one_step true
}
set v2rdm_casscf {
 nat_orbs true
# tpdm_guess hf
# constrain_spin true
# cg_convergence 1e-6
}
# optimize_orbitals true
# orbopt_active_active_rotations false
# semicanonicalize_orbitals false
# mu_update_frequency 500
# restricted_docc  [ 0, 0, 0, 0, 0, 0, 0, 0 ]
# active           [ 2, 0, 0, 0, 0, 2, 0, 0 ]
# molden_write true

set erpa {
 pruning_threshold 1e-6
 spin_adapt_erpa true
 adiabatic_connection true
}
for R in Rvals:
   h4.R = R
   en, wfn = energy('v2rdm-doci',return_wfn=True)
   energy('erpa',ref_wfn=wfn)

--------------------------------------------------------------------------

    Molecular point group: c1
  Charge       = 0
  Multiplicity = 1
  Basis Set: STO-3G
    Blend: STO-3G
  Basis Set: (STO-3G AUX)
    Blend: DEF2-SVP-JKFIT

    Orbital Energies [Eh]
    ---------------------

    Doubly Occupied:

       1A     -0.351061     2A     -0.258400

  @DF-RHF Final Energy:    -1.66705143270433

   => Energetics <=

    Nuclear Repulsion Energy =              1.2739451317907409
    One-Electron Energy =                  -4.6630700974478323
    Two-Electron Energy =                   1.7220735329527606
    PCM Polarization Energy =               0.0000000000000000
    Total Energy =                         -1.6670514327043309

  Dipole Moment: [D]
     X:     0.0000      Y:     0.0000      Z:     0.0000     Total:     0.0000

    Molecular point group: c1
    Molecular point group: c1
    Molecular point group: c1

    Geometry (in Angstrom), charge = 0, multiplicity = 1:

       Center              X                  Y                   Z               Mass
    ------------   -----------------  -----------------  -----------------  -----------------
         H            0.000000000000     0.000000000000    -2.700000000000     1.007825032070
         H            0.000000000000     0.000000000000    -0.900000000000     1.007825032070
         H            0.000000000000     0.000000000000     0.900000000000     1.007825032070
         H            0.000000000000     0.000000000000     2.700000000000     1.007825032070

*** Psi4 exiting successfully. Buy a developer a beer!
