                               Psi4 1.2a1.dev875

  ==> Input File <==

--------------------------------------------------------------------------
# PYTHONPATH must include directory above plugin directory.
#     Define either externally or here, then import plugin.
sys.path.insert(0, "/edfs/users/namvu/fresh_plugin")
import v2rdm_casscf
sys.path.insert(0, './..')
import erpa

memory 3000 mb
molecule mol {
0 1
c
o 1  1.1282
}

set {
  basis sto-3g
  scf_type df
  d_convergence 1e-8
  reference rohf
}

set v2rdm_casscf{

  positivity dqg

  tpdm_write_full true
  constrain_spin true

  r_convergence  1e-5
  e_convergence  1e-4
  cg_convergence 1e-6
  maxiter 1000000

  optimize_orbitals true
  orbopt_active_active_rotations true
  semicanonicalize_orbitals false

  mu_update_frequency 500

  restricted_docc  [ 2, 0, 0, 0 ]
  active           [ 4, 0, 2, 2 ]
}

set erpa {

  pruning_threshold 1e-7
  number_coefficients 20
  coefficient_threshold 0.005

 }

en,wfn = energy('v2rdm-casscf',return_wfn=True)

energy('erpa',ref_wfn=wfn)

--------------------------------------------------------------------------

    Molecular point group: c2v
  Charge       = 0
  Multiplicity = 1
  Basis Set: STO-3G
    Blend: STO-3G
  Basis Set: (STO-3G AUX)
    Blend: DEF2-SVP-JKFIT

    Orbital Energies (a.u.)
    -----------------------

    Doubly Occupied:

       1A1   -20.424424     2A1   -11.093526     3A1    -1.459956
       4A1    -0.699441     1B2    -0.551062     1B1    -0.551062
       5A1    -0.446443

    Singly Occupied:

  @DF-ROHF Final Energy:  -111.22475324284760

   => Energetics <=

    Nuclear Repulsion Energy =             22.5141872117709596
    One-Electron Energy =                -197.0260526251322517
    Two-Electron Energy =                  63.2871121705137014
    Total Energy =                       -111.2247532428476120
    Molecular point group: c2v
    Molecular point group: c2v
    Molecular point group: c2v
    Molecular point group: c2v

    Geometry (in Angstrom), charge = 0, multiplicity = 1:

       Center              X                  Y                   Z               Mass
    ------------   -----------------  -----------------  -----------------  -----------------
           C          0.000000000000     0.000000000000    -0.644597882116    12.000000000000
           O          0.000000000000     0.000000000000     0.483602117884    15.994914619560

*** Psi4 exiting successfully. Buy a developer a beer!
